ITEM: TIMESTEP
2000675
ITEM: NUMBER OF ATOMS
13068
ITEM: BOX BOUNDS ff pp pp
-2.2000000000000000e+01 2.2000000000000000e+01
-2.2000000000000000e+01 2.2000000000000000e+01
-2.2000000000000000e+01 2.2000000000000000e+01
ITEM: ATOMS id type xs ys zs
6394 1 0.0290032 0.00531498 0.0204887
9875 1 0.807987 0.0286815 0.0188309
3811 1 0.813908 0.00535179 0.0160123
1606 1 0.834715 0.0343663 0.0149098
12426 1 0.808506 0.0106456 0.0390266
2259 1 0.823303 0.0333052 0.0371864
11549 1 0.821341 0.021865 0.00022756
12493 1 0.852223 0.035943 0.0309064
175 1 0.844612 0.0131209 0.0189434
7848 1 0.869927 0.018094 0.0276473
8660 1 0.866124 0.0206813 0.00264205
6242 1 0.623997 0.0588552 0.0219688
314 1 0.7989 0.0455747 0.0382949
9169 1 0.779514 0.0692492 0.0194944
10866 1 0.796234 0.0526583 0.00720001
10798 1 0.805447 0.0703076 0.0202881
11578 1 0.815881 0.0496332 0.0217798
825 1 0.823279 0.0796289 0.0034599
4602 1 0.876129 0.0421774 0.0303257
9785 1 0.84921 0.0820536 0.0181117
315 1 0.842262 0.0579147 0.0210908
8600 1 0.865544 0.069017 0.00542953
12727 1 0.859134 0.0449002 0.00965889
1964 1 0.863794 0.0688256 0.033526
348 1 0.164797 0.0905331 0.0111521
1292 1 0.794531 0.0853951 0.00605827
12748 1 0.776428 0.0940803 0.0199382
4069 1 0.781123 0.110566 0.0385018
11916 1 0.793443 0.116368 0.0164981
12927 1 0.805353 0.097068 0.0283753
637 1 0.827136 0.0879781 0.0255229
765 1 0.82046 0.115019 0.0140276
11442 1 0.83116 0.108063 0.037873
2206 1 0.845175 0.107983 0.011786
5725 1 0.867235 0.0980835 0.0186107
7630 1 0.875202 0.112778 0.0361752
3385 1 0.855695 0.0949765 0.0387098
10259 1 0.863567 0.124133 0.0142855
11516 1 0.847452 0.122502 0.0333367
11726 1 0.773472 0.158328 0.0306509
8403 1 0.789425 0.159503 0.0127833
7567 1 0.803705 0.139044 0.0163209
4802 1 0.82538 0.136461 0.0309573
7049 1 0.819439 0.161715 0.0276038
11602 1 0.829995 0.148721 0.00711172
5884 1 0.847246 0.146425 0.0227105
9871 1 0.863942 0.162794 0.0175698
10745 1 0.866165 0.137317 0.0347164
8067 1 0.796143 0.170799 0.0358191
8846 1 0.784116 0.188794 0.0247299
10818 1 0.801247 0.189165 0.0106717
12368 1 0.828705 0.19997 0.0089408
3625 1 0.817781 0.18588 0.0285186
1010 1 0.811191 0.166719 0.00502568
1833 1 0.834066 0.175419 0.00700668
9822 1 0.848189 0.180661 0.0234293
3043 1 0.87429 0.186389 0.0138546
2213 1 0.855171 0.202462 0.0198671
5511 1 0.876233 0.206885 0.0310767
338 1 0.780493 0.212763 0.0231538
1903 1 0.79597 0.235558 0.0103456
2672 1 0.806073 0.208982 0.0246926
6766 1 0.828312 0.210719 0.0373126
8922 1 0.817045 0.231547 0.0245665
3294 1 0.838501 0.221561 0.0179135
1699 1 0.83598 0.24392 0.0202836
3563 1 0.818091 0.222157 0.00104389
924 1 0.861505 0.240752 0.00117848
10066 1 0.856867 0.224364 0.0330641
3471 1 0.8752 0.222643 0.0141151
5527 1 0.871054 0.244931 0.0317833
10309 1 0.78647 0.0314892 0.054982
7079 1 0.840024 0.0392975 0.0565108
4390 1 0.825405 0.0317083 0.0783457
3224 1 0.807848 0.0225209 0.0609924
3192 1 0.824989 0.00306078 0.0601775
11395 1 0.866548 0.00961929 0.0536858
9521 1 0.869183 0.033927 0.0637063
3418 1 0.845326 0.0140506 0.0691787
10070 1 0.845081 0.0174852 0.0461789
11656 1 0.789667 0.0771108 0.040154
1180 1 0.802431 0.0629353 0.0574835
699 1 0.828094 0.0605335 0.0631385
10058 1 0.81871 0.067545 0.0402009
12450 1 0.842785 0.0622075 0.0440393
4965 1 0.855762 0.058447 0.0618711
4154 1 0.846552 0.0808669 0.0692823
1977 1 0.847991 0.0437489 0.0786621
10582 1 0.799063 0.084028 0.0773293
3037 1 0.803158 0.121815 0.0419855
10965 1 0.805111 0.0928655 0.053597
982 1 0.827636 0.0871875 0.0517708
10878 1 0.816906 0.101533 0.072634
4416 1 0.820501 0.118482 0.0549081
5209 1 0.868217 0.103829 0.063746
7108 1 0.870651 0.0839859 0.0757452
11422 1 0.844631 0.106818 0.0600037
11415 1 0.863013 0.124053 0.0550911
4503 1 0.877609 0.0854796 0.051745
12407 1 0.46285 0.125969 0.0488598
8616 1 0.507039 0.134433 0.0590346
2353 1 0.802241 0.132863 0.0636261
3730 1 0.812436 0.149216 0.0465025
4237 1 0.824607 0.141309 0.0676877
2197 1 0.851914 0.16587 0.0642273
3358 1 0.844061 0.142571 0.049153
8440 1 0.866764 0.146841 0.0667197
2322 1 0.87309 0.125838 0.0781349
5018 1 0.865727 0.161482 0.0430753
5871 1 0.846923 0.133338 0.0775987
2160 1 0.839739 0.166675 0.0402543
7073 1 0.826231 0.167879 0.060782
5602 1 0.812471 0.193197 0.0518557
9776 1 0.831882 0.186437 0.0737031
441 1 0.837226 0.191652 0.0499424
4143 1 0.807955 0.177854 0.0737674
5852 1 0.872316 0.184749 0.0705402
6327 1 0.867783 0.189221 0.0446349
9856 1 0.853909 0.201781 0.0602305
7929 1 0.132124 0.233232 0.0573356
1494 1 0.715019 0.218086 0.061345
2368 1 0.798536 0.237568 0.04027
341 1 0.835996 0.221381 0.0647619
4148 1 0.808784 0.217984 0.0525463
11788 1 0.823177 0.234874 0.0483899
10303 1 0.821826 0.208408 0.0774665
12200 1 0.814926 0.239878 0.0757055
11060 1 0.840192 0.246574 0.0680535
772 1 0.86905 0.216178 0.0518394
4155 1 0.860832 0.22676 0.0712861
8787 1 0.843368 0.24827 0.0447986
6699 1 0.791944 0.0310332 0.0876713
3104 1 0.787092 0.0204892 0.113014
5957 1 0.810743 0.0113645 0.106211
12701 1 0.838907 0.0373622 0.11175
11872 1 0.811957 0.0129142 0.0826347
3770 1 0.836889 0.020313 0.0969725
10509 1 0.814557 0.0333519 0.0983652
2083 1 0.865704 0.0235967 0.0879159
614 1 0.862739 0.0160201 0.11177
10849 1 0.855899 0.000444285 0.0912036
917 1 0.781194 0.0546444 0.0836903
1787 1 0.791059 0.0508335 0.108812
6937 1 0.830762 0.054046 0.0942547
5215 1 0.81143 0.0749596 0.104504
9315 1 0.805179 0.0561806 0.0904191
3944 1 0.826673 0.0800182 0.0867959
3895 1 0.875761 0.0547826 0.0811126
983 1 0.851665 0.0718876 0.0957124
7818 1 0.866851 0.0426818 0.101792
8187 1 0.874836 0.0646714 0.104396
1257 1 0.679573 0.121032 0.098791
5992 1 0.799378 0.096955 0.110515
11874 1 0.806027 0.124301 0.0865061
10802 1 0.834968 0.113686 0.0828745
6822 1 0.821868 0.100172 0.0993519
6873 1 0.816166 0.121409 0.10845
682 1 0.856991 0.101492 0.085466
9766 1 0.856974 0.123946 0.0987439
4326 1 0.853327 0.0971799 0.108081
3119 1 0.799661 0.150794 0.0808613
1428 1 0.795442 0.138804 0.102959
10686 1 0.785361 0.159493 0.0970086
6363 1 0.830636 0.157847 0.0851263
2638 1 0.836674 0.136486 0.0977034
5523 1 0.818414 0.14539 0.109442
11503 1 0.838002 0.163231 0.115444
11475 1 0.858267 0.152973 0.0902003
470 1 0.870217 0.147652 0.115949
12331 1 0.800239 0.168545 0.115212
574 1 0.812148 0.167528 0.0960146
10111 1 0.833768 0.178863 0.0969398
1054 1 0.835744 0.204801 0.107905
310 1 0.814217 0.191177 0.0973557
5756 1 0.875712 0.183493 0.0939187
13015 1 0.87021 0.205646 0.0810455
11494 1 0.845477 0.207188 0.0831835
5295 1 0.857578 0.194776 0.107244
3338 1 0.852734 0.180561 0.0841378
4614 1 0.859792 0.171335 0.109299
1176 1 0.815324 0.230159 0.115163
6486 1 0.833893 0.22655 0.0994699
11918 1 0.877275 0.234677 0.0874594
8749 1 0.855857 0.24484 0.089302
1603 1 0.854752 0.217522 0.102342
1783 1 0.855114 0.240704 0.110433
3705 1 0.8778 0.229459 0.114712
10325 1 0.784511 0.0282829 0.139813
1837 1 0.782308 0.00481993 0.153179
5063 1 0.800653 0.0116199 0.131426
619 1 0.822359 0.0242343 0.123627
992 1 0.830418 0.0257643 0.14638
4167 1 0.824955 0.0018902 0.133938
3541 1 0.871269 0.00321238 0.144505
12313 1 0.842775 0.0125552 0.127365
11720 1 0.853449 0.0219188 0.149116
2794 1 0.86732 0.0309825 0.131771
6131 1 0.773775 0.051115 0.127012
775 1 0.770845 0.0747466 0.153442
7509 1 0.782564 0.0755228 0.119584
4675 1 0.76972 0.0486892 0.151036
2002 1 0.789612 0.0640592 0.139222
8567 1 0.829182 0.0449995 0.132027
12876 1 0.80423 0.0422389 0.130786
7074 1 0.815521 0.0665667 0.13259
12960 1 0.823681 0.0669369 0.155492
10340 1 0.837742 0.0618357 0.119687
7253 1 0.863663 0.0586547 0.144006
10380 1 0.843472 0.0684454 0.141566
7623 1 0.844167 0.045434 0.152754
9597 1 0.864302 0.0766324 0.122553
5713 1 0.858364 0.0510839 0.1225
4937 1 0.874444 0.0798055 0.146152
4651 1 0.873036 0.0417235 0.155568
1872 1 0.786165 0.121296 0.122165
9344 1 0.797579 0.123492 0.146462
7307 1 0.83618 0.0851837 0.122292
2853 1 0.834162 0.0950502 0.15407
8450 1 0.814372 0.104586 0.128882
7754 1 0.811668 0.0846868 0.148447
3089 1 0.822323 0.116685 0.149849
8623 1 0.835726 0.109026 0.119841
2887 1 0.848355 0.114001 0.152906
12389 1 0.85396 0.096022 0.137022
8185 1 0.859607 0.118499 0.131905
5669 1 0.875108 0.0983496 0.125432
7785 1 0.800208 0.1422 0.128412
345 1 0.827303 0.135728 0.132912
10724 1 0.814512 0.163114 0.136054
12242 1 0.875654 0.141438 0.137997
10499 1 0.851146 0.138785 0.143501
180 1 0.84636 0.138969 0.119643
308 1 0.113039 0.207271 0.120962
531 1 0.42509 0.200078 0.153938
385 1 0.792039 0.171141 0.146142
2980 1 0.821848 0.179532 0.118594
5994 1 0.807427 0.190624 0.144733
7387 1 0.837453 0.193455 0.128501
12738 1 0.835258 0.171598 0.140144
9124 1 0.867635 0.189885 0.130916
8951 1 0.85781 0.166963 0.131936
9579 1 0.872323 0.167248 0.157297
9750 1 0.852478 0.18395 0.154296
4150 1 0.336168 0.239509 0.147089
7831 1 0.800106 0.211319 0.13401
7379 1 0.798843 0.239688 0.135991
744 1 0.825405 0.237416 0.145647
3808 1 0.840317 0.227051 0.126515
7339 1 0.8253 0.212499 0.13961
5534 1 0.86203 0.214212 0.123884
10526 1 0.858948 0.24032 0.140671
6911 1 0.848332 0.209868 0.142764
7970 1 0.799742 0.0381065 0.158894
11870 1 0.793968 0.0094851 0.174678
2834 1 0.788042 0.0267005 0.194828
2591 1 0.806891 0.0367787 0.183941
5829 1 0.814176 0.0215615 0.165706
8376 1 0.835409 0.0312745 0.168218
2993 1 0.838316 0.00339854 0.16863
3887 1 0.829318 0.00125392 0.194839
4466 1 0.868301 0.0251544 0.194938
2099 1 0.846023 0.0194569 0.189916
12872 1 0.865774 0.00231606 0.167695
599 1 0.86004 0.0249584 0.172085
11507 1 0.741188 0.0527761 0.16733
9317 1 0.776913 0.0611617 0.175964
3019 1 0.797374 0.0649699 0.163106
5501 1 0.783946 0.0798603 0.18484
10632 1 0.830467 0.0424838 0.188682
1016 1 0.838961 0.0671794 0.187477
4857 1 0.811437 0.0672059 0.186354
5346 1 0.819225 0.0494246 0.169849
11383 1 0.868736 0.0500801 0.194362
3042 1 0.870982 0.072719 0.177989
4906 1 0.845737 0.0722293 0.165927
5592 1 0.851684 0.0483282 0.174635
7462 1 0.467542 0.116326 0.189169
2164 1 0.792047 0.0915625 0.161339
9652 1 0.807698 0.122759 0.195196
9930 1 0.821512 0.0869881 0.176265
8790 1 0.837659 0.107663 0.17586
4564 1 0.809832 0.116154 0.1701
7443 1 0.802768 0.0967897 0.186489
3595 1 0.854219 0.0879749 0.184863
12252 1 0.863065 0.0951837 0.161256
5201 1 0.859676 0.121907 0.171427
6476 1 0.865582 0.114479 0.195474
1239 1 0.793291 0.165294 0.185335
11641 1 0.805708 0.140461 0.169643
6048 1 0.833574 0.129385 0.167383
9250 1 0.82212 0.155776 0.180221
9770 1 0.841284 0.154921 0.159737
11487 1 0.86177 0.147307 0.165639
3456 1 0.875739 0.158535 0.184203
4562 1 0.836875 0.180751 0.176507
426 1 0.828995 0.205423 0.178618
12350 1 0.821006 0.170118 0.160903
6778 1 0.806426 0.190832 0.172092
2430 1 0.829386 0.19351 0.157836
3828 1 0.820651 0.178799 0.195976
6387 1 0.853853 0.166113 0.180244
8575 1 0.869807 0.183568 0.178315
6547 1 0.861661 0.201024 0.191595
5903 1 0.799619 0.243283 0.170004
7795 1 0.822118 0.239276 0.176752
2156 1 0.839935 0.225618 0.188348
10584 1 0.80976 0.221057 0.158207
11431 1 0.833486 0.222902 0.163419
11857 1 0.80996 0.218578 0.189434
1174 1 0.872206 0.235442 0.169392
4389 1 0.85759 0.217754 0.173783
6603 1 0.793903 0.000598332 0.225882
4635 1 0.816913 0.0105838 0.225278
5200 1 0.805103 0.0304174 0.215129
11285 1 0.833338 0.0376985 0.23093
28 1 0.829395 0.0265135 0.208272
491 1 0.802516 0.00781396 0.202492
12074 1 0.846144 0.00926868 0.212933
4145 1 0.852618 0.0317481 0.21637
5955 1 0.858214 0.0104301 0.233068
1480 1 0.875655 0.0314708 0.219828
8270 1 0.869694 0.00860038 0.210985
3486 1 0.79471 0.0530254 0.204018
7031 1 0.820758 0.0562228 0.207384
7674 1 0.815275 0.0794438 0.230176
12704 1 0.837349 0.0642591 0.234466
650 1 0.812227 0.0494427 0.230967
4881 1 0.844943 0.053269 0.206711
11281 1 0.859709 0.0535597 0.224133
12861 1 0.843415 0.0796339 0.215914
8352 1 0.864406 0.0716187 0.206025
5519 1 0.822427 0.0848847 0.204849
360 1 0.813922 0.10216 0.218499
8783 1 0.834895 0.110151 0.20022
6188 1 0.866109 0.0934648 0.214917
7361 1 0.858133 0.114986 0.220548
11662 1 0.802163 0.145775 0.207088
3009 1 0.77782 0.139522 0.210133
12710 1 0.818657 0.131521 0.222206
1982 1 0.823924 0.154725 0.215322
7786 1 0.804358 0.161645 0.234315
386 1 0.825778 0.138589 0.197169
7847 1 0.843788 0.136304 0.216143
8501 1 0.867701 0.140903 0.205533
1539 1 0.870052 0.161433 0.227363
4032 1 0.842496 0.157096 0.198589
991 1 0.866806 0.139203 0.229028
3877 1 0.823601 0.203523 0.214378
5378 1 0.810662 0.182905 0.218933
10803 1 0.828791 0.171332 0.2319
1820 1 0.849488 0.170156 0.21735
4278 1 0.86491 0.191359 0.213339
5169 1 0.870761 0.16921 0.204941
2983 1 0.844001 0.196082 0.225478
7531 1 0.876557 0.196024 0.235087
2746 1 0.842646 0.190509 0.197545
10688 1 0.32551 0.229207 0.210067
5210 1 0.826458 0.243645 0.218527
7247 1 0.802938 0.231534 0.223089
9429 1 0.844795 0.246606 0.201667
10537 1 0.866702 0.214608 0.221936
8221 1 0.866159 0.238577 0.215272
8680 1 0.849729 0.230751 0.229633
6074 1 0.844103 0.213099 0.208318
9594 1 0.861235 0.225358 0.197188
11722 1 0.323733 0.0221873 0.271148
2786 1 0.776848 0.0304791 0.265664
11700 1 0.788566 0.0366957 0.241412
10158 1 0.795789 0.0131555 0.246958
8553 1 0.818724 0.00211091 0.24787
6807 1 0.831307 0.00305006 0.270328
1166 1 0.807399 0.0133241 0.274801
980 1 0.83846 0.0181979 0.242843
3904 1 0.814048 0.0291232 0.242063
7950 1 0.826732 0.0299627 0.264148
2240 1 0.859864 0.0350976 0.24283
7684 1 0.865591 0.0147364 0.255944
3526 1 0.851107 0.0310112 0.267643
2872 1 0.875793 0.034463 0.26172
7169 1 0.796744 0.0699847 0.274832
9484 1 0.7738 0.0694748 0.249516
2168 1 0.839496 0.0490932 0.252006
9800 1 0.829695 0.0577219 0.272186
6353 1 0.817805 0.0698071 0.251851
9422 1 0.813176 0.0470383 0.257432
4889 1 0.861117 0.0702172 0.239326
11508 1 0.869292 0.0794223 0.264267
11588 1 0.860666 0.0553286 0.264418
2268 1 0.842265 0.073804 0.261687
7297 1 0.783061 0.0901156 0.263892
10233 1 0.798148 0.120204 0.237048
3417 1 0.804044 0.0962798 0.24985
6678 1 0.823794 0.0979088 0.260202
9268 1 0.836365 0.112543 0.238515
3802 1 0.80516 0.0950682 0.275046
5831 1 0.811999 0.117446 0.269656
273 1 0.875589 0.105231 0.237295
623 1 0.841433 0.0876665 0.238091
8792 1 0.84693 0.100075 0.273471
6897 1 0.857268 0.101988 0.252609
9218 1 0.877558 0.122335 0.25475
4790 1 0.789336 0.145093 0.245757
11833 1 0.815102 0.152137 0.25375
10412 1 0.833124 0.139001 0.241158
262 1 0.831649 0.126333 0.262934
6132 1 0.839528 0.149371 0.263377
5154 1 0.861305 0.16141 0.267067
12607 1 0.852159 0.128138 0.251415
3535 1 0.848473 0.157255 0.2385
6410 1 0.872852 0.146151 0.251325
9241 1 0.812543 0.195403 0.260731
9492 1 0.824227 0.193645 0.238805
3817 1 0.829473 0.173517 0.260816
12671 1 0.856582 0.17835 0.239717
6736 1 0.840919 0.198516 0.256405
12587 1 0.800169 0.222497 0.260563
1500 1 0.79973 0.247472 0.265321
5023 1 0.802975 0.210607 0.238246
9637 1 0.838299 0.233907 0.252294
12107 1 0.822337 0.217103 0.249971
10065 1 0.812653 0.241624 0.24738
707 1 0.859275 0.214502 0.250039
2957 1 0.867778 0.239926 0.245606
6396 1 0.859746 0.230019 0.269901
7160 1 0.54005 0.000676422 0.299572
11269 1 0.761619 0.00508312 0.301659
6791 1 0.798093 0.0385235 0.277427
2115 1 0.797851 0.0109593 0.297518
1422 1 0.77539 0.0209385 0.288863
8779 1 0.792699 0.035139 0.300593
968 1 0.832106 0.0356555 0.305589
4730 1 0.838457 0.0179396 0.287476
2248 1 0.818261 0.0327077 0.286045
2443 1 0.821512 3.80091e-05 0.297107
6510 1 0.87401 0.0150083 0.304591
1689 1 0.850107 0.0175701 0.307574
13026 1 0.868344 0.0372875 0.287277
4681 1 0.860552 0.0412511 0.309917
2464 1 0.35459 0.0798469 0.285295
4726 1 0.455264 0.0581374 0.289313
405 1 0.783359 0.0674767 0.293389
687 1 0.807697 0.053383 0.290513
9164 1 0.829453 0.0630976 0.297902
8251 1 0.805845 0.0788959 0.296491
6458 1 0.823616 0.0786252 0.279996
9274 1 0.842974 0.044363 0.287268
6796 1 0.861459 0.0611986 0.288192
12956 1 0.628385 0.0968945 0.288758
1111 1 0.765527 0.119105 0.312038
10216 1 0.790838 0.11288 0.304433
3302 1 0.787435 0.124311 0.285808
10493 1 0.837234 0.0851805 0.296708
3611 1 0.824555 0.102741 0.285822
10381 1 0.839645 0.111905 0.308948
1049 1 0.839746 0.122083 0.284558
12270 1 0.813655 0.101547 0.310037
12653 1 0.814029 0.124177 0.299285
6191 1 0.870689 0.105904 0.306697
7578 1 0.863476 0.093603 0.28707
2878 1 0.867369 0.1149 0.277523
5859 1 0.851648 0.0907815 0.31318
4964 1 0.796286 0.152575 0.286142
11676 1 0.79291 0.136053 0.306896
3136 1 0.816442 0.165472 0.302208
12400 1 0.817934 0.141673 0.281857
8856 1 0.832813 0.143264 0.30619
8976 1 0.836139 0.160922 0.285653
3071 1 0.860258 0.137574 0.280347
2997 1 0.856198 0.128088 0.301072
4266 1 0.854534 0.149261 0.312519
4303 1 0.878624 0.152419 0.284752
5057 1 0.794371 0.169197 0.310524
13013 1 0.803377 0.185727 0.29615
5176 1 0.81215 0.173713 0.277963
12814 1 0.82361 0.195235 0.2848
26 1 0.836701 0.183366 0.29926
4513 1 0.815572 0.194498 0.314299
1386 1 0.861312 0.166112 0.297071
12617 1 0.854854 0.198999 0.278095
4188 1 0.852777 0.204786 0.303133
11793 1 0.874227 0.183217 0.275448
6234 1 0.877842 0.198341 0.298641
12264 1 0.801454 0.234976 0.296188
6322 1 0.840053 0.239268 0.288235
11025 1 0.802635 0.218372 0.313053
9229 1 0.806075 0.210191 0.287878
3298 1 0.824943 0.222049 0.276772
3898 1 0.827576 0.214855 0.304815
3619 1 0.821543 0.248402 0.279623
3921 1 0.857363 0.228076 0.30564
7806 1 0.87516 0.235685 0.288045
7596 1 0.874415 0.214221 0.277402
900 1 0.767135 0.00443445 0.336987
2602 1 0.784593 0.0188377 0.319959
6941 1 0.785659 0.0287797 0.345369
7274 1 0.792352 0.00208446 0.336115
11124 1 0.813508 0.0205112 0.314364
7679 1 0.830683 0.00559205 0.322838
7153 1 0.82901 0.0152184 0.349293
2541 1 0.839888 0.0291192 0.330342
10918 1 0.81122 0.0340694 0.339983
1588 1 0.870764 0.0152984 0.349044
4532 1 0.848808 0.00434322 0.340269
11834 1 0.86747 0.0159027 0.325691
6308 1 0.849925 0.0373451 0.352506
9562 1 0.792058 0.0563306 0.333351
3000 1 0.822973 0.0739347 0.317849
894 1 0.811717 0.0495544 0.314865
10553 1 0.821324 0.0709791 0.340131
1988 1 0.831469 0.0490842 0.343401
8860 1 0.837011 0.0546632 0.318913
7323 1 0.850371 0.0694459 0.337315
7116 1 0.862519 0.0493612 0.334222
524 1 0.857783 0.065487 0.315448
9826 1 0.771032 0.101764 0.335531
9881 1 0.78334 0.0930186 0.316725
7098 1 0.801108 0.0840721 0.335868
1495 1 0.797186 0.110224 0.329129
4020 1 0.7847 0.116343 0.350356
2888 1 0.820114 0.104602 0.333728
1892 1 0.836803 0.0888743 0.337694
11509 1 0.857871 0.106446 0.331081
9455 1 0.874692 0.0869723 0.323552
4435 1 0.874193 0.0881474 0.346078
1526 1 0.846454 0.12358 0.348746
7750 1 0.870983 0.122139 0.347658
4607 1 0.785506 0.131765 0.331541
1102 1 0.791432 0.157078 0.333518
10809 1 0.768206 0.160454 0.331519
11821 1 0.832189 0.127865 0.326841
10832 1 0.812097 0.144363 0.31591
7998 1 0.808491 0.132329 0.340381
35 1 0.837827 0.153256 0.336923
12664 1 0.873985 0.125006 0.320053
4788 1 0.858957 0.138179 0.334833
9189 1 0.857867 0.16312 0.336269
590 1 0.796144 0.183336 0.331289
2272 1 0.777072 0.175752 0.348164
11043 1 0.769778 0.197969 0.339035
8106 1 0.818656 0.191205 0.336756
9050 1 0.830704 0.174786 0.322584
9685 1 0.839426 0.183115 0.345097
7476 1 0.812462 0.166718 0.342495
267 1 0.831579 0.204069 0.353064
887 1 0.864296 0.184195 0.318306
7430 1 0.841626 0.194723 0.320752
6753 1 0.877938 0.166917 0.322717
2633 1 0.877477 0.175559 0.346093
6018 1 0.861359 0.194985 0.338671
8083 1 0.765733 0.241179 0.34754
7299 1 0.817154 0.247719 0.352268
1133 1 0.821305 0.215557 0.332335
12177 1 0.827032 0.239079 0.315596
11265 1 0.870584 0.233161 0.330781
8484 1 0.873202 0.212123 0.321696
8701 1 0.854797 0.221579 0.350412
3952 1 0.849134 0.215934 0.324377
12111 1 0.843675 0.238568 0.333415
10474 1 0.775578 0.0263635 0.369442
11365 1 0.79401 0.0145847 0.387524
1948 1 0.784439 0.00352168 0.365008
6927 1 0.830658 0.00406316 0.370974
10146 1 0.808702 0.0156719 0.361625
628 1 0.836205 0.028306 0.370987
4429 1 0.818742 0.0181607 0.3853
9497 1 0.853352 0.0133632 0.365113
673 1 0.857915 0.035843 0.379489
7403 1 0.876892 0.0371212 0.359465
6962 1 0.789654 0.043967 0.367279
1364 1 0.818079 0.0445933 0.380588
10548 1 0.808023 0.0591476 0.361274
3249 1 0.815985 0.0681467 0.38511
1930 1 0.833109 0.0565263 0.367525
533 1 0.859376 0.0570231 0.367461
3132 1 0.843987 0.0522677 0.388535
1914 1 0.843379 0.0779203 0.391967
11177 1 0.786622 0.0848531 0.356509
5466 1 0.787187 0.114893 0.377215
10360 1 0.825968 0.124456 0.371544
3820 1 0.804505 0.102289 0.371174
1690 1 0.829508 0.103612 0.357826
971 1 0.817263 0.0845215 0.360545
10397 1 0.825761 0.0934759 0.38248
3343 1 0.840401 0.0855958 0.366052
349 1 0.865124 0.0860376 0.373149
2519 1 0.855293 0.0998935 0.356277
1860 1 0.847426 0.114994 0.371282
12998 1 0.869888 0.113054 0.370541
1688 1 0.137013 0.151183 0.391597
6077 1 0.698989 0.135727 0.36496
10124 1 0.785393 0.145231 0.355746
3135 1 0.795819 0.154592 0.385026
9980 1 0.839518 0.145249 0.382405
8849 1 0.82247 0.162146 0.388938
7941 1 0.810735 0.150015 0.364027
6686 1 0.802525 0.125549 0.362161
11842 1 0.831869 0.143369 0.358078
1029 1 0.807249 0.127859 0.392062
12762 1 0.876801 0.153921 0.358529
6991 1 0.849971 0.158899 0.359733
10055 1 0.860319 0.137875 0.3632
2177 1 0.874767 0.139664 0.380086
5803 1 0.772193 0.190577 0.36689
1460 1 0.788599 0.176152 0.373192
2958 1 0.799277 0.195681 0.382902
9975 1 0.810601 0.187584 0.359669
5139 1 0.819665 0.184356 0.383429
3314 1 0.826888 0.166372 0.36209
6236 1 0.86567 0.191612 0.362513
8981 1 0.861031 0.169468 0.377188
5299 1 0.841586 0.18505 0.368896
10667 1 0.857632 0.20597 0.383028
1677 1 0.772729 0.237281 0.369096
11713 1 0.798744 0.224408 0.378631
12071 1 0.794848 0.240559 0.358769
6715 1 0.790357 0.207943 0.360962
4491 1 0.840335 0.238838 0.35684
6000 1 0.825069 0.241278 0.378458
7856 1 0.813344 0.222335 0.356009
7203 1 0.820205 0.209768 0.376031
10476 1 0.877422 0.237748 0.357911
2611 1 0.840471 0.219281 0.369579
11759 1 0.860069 0.233253 0.373229
6161 1 0.876312 0.219258 0.389791
5021 1 0.874968 0.214322 0.367364
4351 1 0.775535 0.0356527 0.42742
12678 1 0.800316 0.0162566 0.42628
10114 1 0.79518 0.03471 0.399552
3207 1 0.825359 0.0186396 0.421498
5369 1 0.827943 0.0347302 0.402943
5197 1 0.810842 0.00899437 0.405014
1998 1 0.847516 0.0104393 0.393807
10827 1 0.874545 0.0121042 0.426283
9784 1 0.871771 0.0174219 0.400189
6777 1 0.853887 0.0343751 0.404715
10017 1 0.850326 0.0160491 0.427988
7157 1 0.861751 0.0360306 0.430851
1240 1 0.223196 0.0558106 0.413273
3247 1 0.775557 0.0492741 0.408874
12086 1 0.771673 0.0735689 0.416597
8862 1 0.796212 0.0717074 0.413594
484 1 0.795572 0.0612486 0.392902
9039 1 0.808142 0.0487578 0.412826
4264 1 0.837003 0.0586012 0.411217
11538 1 0.839454 0.075554 0.428192
718 1 0.837238 0.0428505 0.428228
10973 1 0.860428 0.0676686 0.420335
11111 1 0.867925 0.0764177 0.396407
12570 1 0.866843 0.051913 0.397478
6106 1 0.116191 0.114783 0.407198
10604 1 0.730253 0.0873283 0.401626
462 1 0.798152 0.120168 0.413935
1299 1 0.801858 0.0906621 0.395171
6933 1 0.786501 0.0932968 0.422703
1115 1 0.81157 0.100865 0.424802
9544 1 0.834692 0.10126 0.429548
11324 1 0.821956 0.0866406 0.40943
2389 1 0.831648 0.116912 0.397221
5163 1 0.854596 0.111584 0.415813
10801 1 0.853956 0.0879515 0.415195
11982 1 0.871124 0.0867914 0.432333
3408 1 0.873549 0.100101 0.407302
6076 1 0.854302 0.10059 0.393066
5894 1 0.860139 0.124127 0.393397
12234 1 0.782814 0.129639 0.397575
12394 1 0.79546 0.146375 0.424697
3044 1 0.812086 0.143873 0.40885
11073 1 0.820201 0.126833 0.426278
10647 1 0.820171 0.159365 0.429062
11240 1 0.837327 0.14066 0.407423
12732 1 0.874498 0.134756 0.407581
1197 1 0.855604 0.153104 0.398814
6599 1 0.851854 0.13132 0.427464
8869 1 0.868284 0.158298 0.424928
1936 1 0.787067 0.188824 0.402671
1306 1 0.799709 0.174466 0.426462
2399 1 0.838337 0.166936 0.411934
3978 1 0.803849 0.17013 0.403868
1687 1 0.811757 0.194316 0.403541
9101 1 0.806305 0.199264 0.428502
1095 1 0.824469 0.183211 0.423227
10574 1 0.831145 0.203736 0.394209
8006 1 0.855859 0.182874 0.419754
7365 1 0.875356 0.197842 0.409884
6832 1 0.844532 0.203034 0.424787
3606 1 0.847076 0.182492 0.395491
11197 1 0.870135 0.174989 0.398603
8166 1 0.44435 0.209792 0.407746
130 1 0.784639 0.208286 0.430371
7542 1 0.793457 0.222763 0.414503
8508 1 0.790726 0.239451 0.395728
4044 1 0.79755 0.245137 0.431353
9199 1 0.823896 0.215243 0.414805
2590 1 0.837463 0.229918 0.395106
10554 1 0.822966 0.249094 0.403726
1365 1 0.826949 0.243184 0.429817
2086 1 0.854417 0.214049 0.405766
12718 1 0.862999 0.222153 0.431777
10370 1 0.864526 0.2373 0.399368
4977 1 0.843715 0.228873 0.42315
5858 1 0.869023 0.243851 0.423763
9583 1 0.518571 0.0119652 0.465143
12201 1 0.588121 0.0392587 0.448782
11100 1 0.782909 0.00179351 0.472806
11205 1 0.797451 0.0381791 0.44419
10844 1 0.794315 0.0135168 0.449268
10795 1 0.782825 0.0290998 0.465662
12939 1 0.818244 0.0243545 0.446789
10637 1 0.80933 0.00749667 0.469459
6012 1 0.83612 0.0246592 0.466012
11429 1 0.805232 0.0349413 0.468773
13012 1 0.857779 0.0368623 0.472551
7890 1 0.857257 0.0252922 0.452841
10276 1 0.86946 0.0134169 0.471868
11377 1 0.848063 0.00297769 0.465599
316 1 0.785662 0.0600761 0.435369
4879 1 0.786429 0.082569 0.445647
8636 1 0.778126 0.0753054 0.46829
10236 1 0.800274 0.0626554 0.453953
8990 1 0.823322 0.0446379 0.45812
8831 1 0.815716 0.0778412 0.437777
11325 1 0.815242 0.0526203 0.435276
5863 1 0.828492 0.0675575 0.462181
9990 1 0.873751 0.0480168 0.447325
2675 1 0.854794 0.0693075 0.444874
8483 1 0.849305 0.0477824 0.449478
12241 1 0.862082 0.0585279 0.47157
6995 1 0.851547 0.0794419 0.470374
9480 1 0.876377 0.0790739 0.458911
4987 1 0.296949 0.085923 0.438277
12982 1 0.685125 0.099576 0.444031
5724 1 0.783325 0.102182 0.458958
9673 1 0.796828 0.121861 0.436798
8348 1 0.839907 0.0894838 0.449113
4014 1 0.805198 0.0987734 0.446326
8203 1 0.827362 0.0968948 0.468118
1158 1 0.804088 0.0883958 0.46751
2699 1 0.827711 0.113639 0.452661
7668 1 0.808242 0.113194 0.467119
550 1 0.873883 0.110355 0.435456
3389 1 0.859424 0.102863 0.469401
6460 1 0.853147 0.107616 0.444686
3899 1 0.846302 0.122348 0.468573
2855 1 0.487928 0.16245 0.434251
9123 1 0.790015 0.130088 0.466902
7360 1 0.786499 0.151413 0.454283
7624 1 0.834412 0.135475 0.444316
2500 1 0.809487 0.143222 0.446172
11458 1 0.824378 0.133258 0.464752
1160 1 0.806367 0.147687 0.469255
7216 1 0.829911 0.157665 0.454018
797 1 0.857738 0.140969 0.450892
7788 1 0.845883 0.144957 0.471764
6532 1 0.844703 0.157479 0.434848
12422 1 0.870666 0.1501 0.471901
4246 1 0.10766 0.204099 0.452605
8254 1 0.793643 0.188183 0.453479
12828 1 0.80861 0.168132 0.449156
5282 1 0.819778 0.193535 0.451687
7156 1 0.838299 0.203688 0.466089
1099 1 0.804777 0.170906 0.472206
11335 1 0.831171 0.179529 0.470154
6929 1 0.843217 0.187855 0.447048
8774 1 0.865425 0.168931 0.446987
2929 1 0.865345 0.196392 0.438301
7759 1 0.860853 0.194318 0.461408
12750 1 0.208572 0.219351 0.468015
3278 1 0.266672 0.23893 0.455914
10248 1 0.801591 0.214562 0.454148
7487 1 0.805437 0.221765 0.43409
6746 1 0.826404 0.217684 0.439899
2279 1 0.838608 0.230866 0.4587
10203 1 0.817749 0.241084 0.450689
10343 1 0.847552 0.212106 0.447269
12612 1 0.853669 0.239112 0.444187
11252 1 0.870619 0.22414 0.45755
9661 1 0.861927 0.245771 0.466902
4009 1 0.43936 0.0372978 0.49062
1242 1 0.756428 0.0138477 0.476522
1898 1 0.789797 0.0340334 0.509948
4442 1 0.797475 0.0202541 0.486576
4234 1 0.828046 0.00728144 0.48388
398 1 0.832281 0.0190036 0.504439
3480 1 0.810292 0.0162693 0.51317
1540 1 0.821974 0.0296133 0.484102
8025 1 0.848175 0.0194331 0.486558
8586 1 0.874508 0.0312044 0.487653
10185 1 0.877754 0.0397222 0.513043
1004 1 0.12947 0.0468833 0.49494
8842 1 0.413826 0.0734281 0.474007
9774 1 0.416596 0.0480947 0.513864
7189 1 0.756298 0.0658563 0.482054
10021 1 0.783301 0.0521598 0.483452
9534 1 0.792129 0.0764082 0.488931
6669 1 0.768721 0.0568645 0.502795
5076 1 0.792431 0.0622781 0.511833
336 1 0.835438 0.0523175 0.4817
7019 1 0.810973 0.0588288 0.476735
873 1 0.810395 0.0437959 0.498681
5208 1 0.815123 0.0721659 0.503411
2938 1 0.824125 0.0785663 0.482403
6525 1 0.844558 0.0728934 0.496788
4127 1 0.850081 0.043194 0.500895
10588 1 0.866689 0.0651583 0.496179
13066 1 0.859983 0.0811471 0.513565
6523 1 0.791021 0.119023 0.514296
1042 1 0.770812 0.0954743 0.479248
1851 1 0.789789 0.109793 0.480794
9584 1 0.78865 0.0874239 0.509213
5568 1 0.768436 0.101831 0.503231
1241 1 0.829107 0.117225 0.486024
3742 1 0.806869 0.097392 0.491059
4160 1 0.829913 0.0977356 0.508043
11574 1 0.811236 0.117942 0.502741
10576 1 0.833741 0.122008 0.509966
9556 1 0.842404 0.0974721 0.486487
726 1 0.855703 0.123633 0.492142
4643 1 0.865793 0.0872168 0.489651
5967 1 0.851655 0.103293 0.507318
10363 1 0.639363 0.126839 0.485775
8413 1 0.65 0.132307 0.50945
5087 1 0.777836 0.130473 0.488955
9448 1 0.783015 0.162862 0.500064
12309 1 0.809332 0.132125 0.485075
9210 1 0.825732 0.157723 0.477199
3246 1 0.833396 0.139563 0.491491
5455 1 0.807766 0.156125 0.493677
5680 1 0.824136 0.165806 0.506586
11575 1 0.844741 0.162106 0.493002
10152 1 0.865217 0.14827 0.494744
10092 1 0.87316 0.127741 0.477748
4453 1 0.874278 0.125485 0.510448
12641 1 0.39156 0.17109 0.48103
8428 1 0.801089 0.173887 0.510206
9065 1 0.793176 0.191515 0.494134
2947 1 0.814088 0.198373 0.477653
8388 1 0.824184 0.186642 0.498118
5634 1 0.813823 0.206663 0.503342
7707 1 0.838613 0.204343 0.510842
11000 1 0.858089 0.169564 0.474656
10606 1 0.865116 0.173705 0.499227
5758 1 0.848701 0.190451 0.486861
11505 1 0.876388 0.186648 0.485549
6682 1 0.845054 0.183858 0.510726
10121 1 0.760691 0.241041 0.481252
7870 1 0.755384 0.247215 0.512447
6922 1 0.791326 0.211168 0.48025
6888 1 0.775299 0.212725 0.500138
11947 1 0.784861 0.240503 0.510094
258 1 0.801616 0.226945 0.496521
3644 1 0.819114 0.231723 0.474646
2802 1 0.84024 0.241305 0.480654
7069 1 0.821025 0.238976 0.49904
697 1 0.836296 0.221898 0.493813
5009 1 0.867021 0.23881 0.495467
6798 1 0.853518 0.218407 0.474821
12818 1 0.862225 0.214848 0.500118
2470 1 0.84151 0.243573 0.511495
144 1 0.166341 0.0347487 0.545263
9211 1 0.792523 0.00956655 0.526713
7280 1 0.821095 0.00390398 0.546919