ITEM: TIMESTEP
2000012
ITEM: NUMBER OF ATOMS
6012
ITEM: BOX BOUNDS pp pp pp
-1.5000000000000000e+01 1.5000000000000000e+01
-1.5000000000000000e+01 1.5000000000000000e+01
-1.5000000000000000e+01 1.5000000000000000e+01
ITEM: ATOMS id type xs ys zs
4816 1 0.32395 0.197012 0.0260973
2311 1 0.00204462 0.257412 0.0470381
1227 1 0.105991 0.259535 0.0265103
155 1 0.0822742 0.322702 0.0299917
5750 1 0.483514 0.224514 0.0677592
4096 1 0.119491 0.253413 0.125601
3762 1 0.379478 0.28271 0.0774808
1038 1 0.531684 0.245989 0.108955
2663 1 0.484462 0.396114 0.074726
5991 1 0.428891 0.349527 0.114356
5527 1 0.465902 0.366683 0.106653
5697 1 0.499869 0.347105 0.103361
2363 1 0.492799 0.398051 0.108063
1549 1 0.521542 0.379932 0.090053
496 1 0.126062 0.269919 0.173551
3198 1 0.371135 0.276472 0.182169
552 1 0.509344 0.276614 0.142947
2931 1 0.0803444 0.292304 0.145638
5033 1 0.38824 0.322819 0.181789
2153 1 0.381253 0.341476 0.134247
3590 1 0.426583 0.331134 0.147112
2227 1 0.476015 0.321997 0.129635
5943 1 0.512336 0.311342 0.172391
5892 1 0.54469 0.302063 0.1398
4931 1 0.496377 0.335283 0.188966
2374 1 0.508075 0.310858 0.129098
348 1 0.505516 0.341245 0.151791
3194 1 0.309532 0.376054 0.186748
5543 1 0.373989 0.356146 0.164974
3378 1 0.413944 0.366086 0.15055
28 1 0.384724 0.396151 0.178057
5010 1 0.480829 0.380705 0.138618
3981 1 0.441648 0.371357 0.174926
5110 1 0.466313 0.349473 0.151863
5265 1 0.476323 0.362906 0.182106
2609 1 0.437665 0.384366 0.1282
2362 1 0.543838 0.352629 0.126953
2470 1 0.51738 0.376416 0.129489
782 1 0.506571 0.375948 0.166718
712 1 0.538994 0.396597 0.153125
2745 1 0.541028 0.345191 0.160698
72 1 0.529073 0.399498 0.185637
5305 1 0.420539 0.279815 0.233425
381 1 0.366917 0.238153 0.196112
2080 1 0.466731 0.27824 0.235164
2902 1 0.444972 0.279929 0.206605
4843 1 0.483844 0.265216 0.18962
4615 1 0.526626 0.249888 0.241783
3517 1 0.543477 0.282895 0.234414
465 1 0.519494 0.285788 0.198464
2289 1 0.355141 0.327922 0.226418
344 1 0.400003 0.28894 0.205829
840 1 0.367667 0.287837 0.217872
4224 1 0.382309 0.339651 0.247185
21 1 0.38951 0.311313 0.232077
679 1 0.427684 0.337129 0.195317
4811 1 0.462278 0.316945 0.239417
4088 1 0.434184 0.311794 0.219071
3189 1 0.462745 0.330648 0.19866
1166 1 0.492442 0.329291 0.223806
1513 1 0.499385 0.293376 0.238962
5602 1 0.523723 0.318565 0.209137
4351 1 0.487551 0.30024 0.203698
508 1 0.269598 0.388414 0.20489
4226 1 0.255447 0.371899 0.246353
983 1 0.283399 0.343687 0.248874
4233 1 0.294402 0.366915 0.225601
4212 1 0.325845 0.387273 0.235078
1445 1 0.327498 0.357069 0.212598
5178 1 0.354444 0.366135 0.239035
2438 1 0.349543 0.379331 0.193058
203 1 0.404022 0.368014 0.191108
4686 1 0.370429 0.350656 0.203511
4155 1 0.408941 0.347179 0.219178
4554 1 0.388083 0.379668 0.226103
3340 1 0.417947 0.368377 0.251053
3822 1 0.44436 0.344742 0.231303
5469 1 0.456524 0.376802 0.246721
5049 1 0.428756 0.375779 0.21597
1919 1 0.480712 0.364609 0.221015
4037 1 0.540606 0.382028 0.223884
3724 1 0.530855 0.353064 0.191717
434 1 0.508675 0.37864 0.202115
2155 1 0.513317 0.35677 0.234684
529 1 0.32622 0.222787 0.282314
3904 1 0.51849 0.212805 0.295943
2079 1 0.272942 0.283013 0.262663
4715 1 0.320052 0.280357 0.306571
2727 1 0.358286 0.228659 0.297831
3761 1 0.325137 0.23702 0.314067
1488 1 0.38386 0.274132 0.260134
5868 1 0.375698 0.272402 0.295976
2560 1 0.421747 0.277603 0.302624
43 1 0.390469 0.241665 0.313325
683 1 0.425002 0.240069 0.28899
1213 1 0.426434 0.283762 0.270413
696 1 0.458627 0.264396 0.269431
107 1 0.491419 0.256809 0.256839
4951 1 0.491023 0.273098 0.302856
4968 1 0.525973 0.254933 0.291015
2399 1 0.509011 0.281632 0.277
3220 1 0.22905 0.330968 0.284829
4095 1 0.257145 0.325543 0.255118
858 1 0.277356 0.314346 0.289474
1404 1 0.316914 0.322931 0.302056
4476 1 0.358349 0.304442 0.303408
2259 1 0.307052 0.321822 0.269867
1752 1 0.346502 0.332337 0.271731
5682 1 0.420098 0.335358 0.29806
3125 1 0.380293 0.326816 0.289296
568 1 0.368384 0.303512 0.265226
5520 1 0.398508 0.304012 0.311428
5009 1 0.403868 0.312816 0.272012
4083 1 0.471853 0.29673 0.271163
1426 1 0.439647 0.342407 0.267802
5495 1 0.475787 0.328736 0.292995
3003 1 0.445512 0.305765 0.29278
556 1 0.533908 0.328385 0.254306
1937 1 0.543537 0.287485 0.306004
3094 1 0.545651 0.29843 0.270366
4553 1 0.499852 0.322419 0.264639
4374 1 0.524137 0.322068 0.296332
4251 1 0.501665 0.341914 0.311866
4333 1 0.296991 0.382962 0.26132
5237 1 0.25454 0.375204 0.304592
3084 1 0.288462 0.354176 0.28148
3765 1 0.263602 0.391035 0.276401
5842 1 0.288376 0.391412 0.303698
2432 1 0.320864 0.351611 0.257788
753 1 0.361358 0.361462 0.275024
2796 1 0.358234 0.390378 0.296501
1677 1 0.334161 0.387001 0.270205
2021 1 0.318098 0.362703 0.308293
1237 1 0.395725 0.362558 0.277933
4159 1 0.376401 0.391396 0.261586
4800 1 0.41305 0.376866 0.307476
4810 1 0.37709 0.35818 0.308766
1000 1 0.458732 0.394305 0.305484
2924 1 0.481815 0.36784 0.289511
4588 1 0.476014 0.34848 0.262335
2146 1 0.449691 0.348447 0.302147
1665 1 0.436808 0.380935 0.279869
1778 1 0.526999 0.391972 0.277653
2347 1 0.516636 0.357671 0.28307
3628 1 0.537322 0.354964 0.313903
1297 1 0.489045 0.385808 0.256159
5664 1 0.540416 0.364006 0.253772
3286 1 0.394321 0.16495 0.345658
2831 1 0.461564 0.14664 0.351127
2366 1 0.499541 0.141847 0.36759
4886 1 0.497514 0.161642 0.335153
4065 1 0.412345 0.201993 0.359916
15 1 0.423545 0.212399 0.317393
269 1 0.391496 0.204193 0.330478
4749 1 0.44621 0.202468 0.347388
1607 1 0.470076 0.224586 0.368695
1726 1 0.484135 0.227555 0.333317
1579 1 0.49853 0.203617 0.363029
3000 1 0.510083 0.198927 0.32934
899 1 0.522914 0.172464 0.366504
3728 1 0.534837 0.211477 0.358171
1211 1 0.537785 0.174999 0.324971
5817 1 0.361616 0.25632 0.363223
4227 1 0.344366 0.265995 0.327924
660 1 0.360445 0.234903 0.32996
3321 1 0.30577 0.232469 0.368846
4771 1 0.313858 0.268623 0.348557
5002 1 0.398735 0.268816 0.373481
5497 1 0.419724 0.254214 0.328424
1290 1 0.393945 0.275068 0.331223
2614 1 0.396688 0.235128 0.353914
5997 1 0.435714 0.269829 0.361318
1412 1 0.468175 0.259306 0.351275
195 1 0.4326 0.229228 0.362739
4629 1 0.466545 0.28289 0.327433
4716 1 0.511039 0.240263 0.358089
3367 1 0.50289 0.270942 0.334245
5045 1 0.493218 0.276816 0.366388
5354 1 0.536962 0.260137 0.348278
5493 1 0.518321 0.23583 0.323955
5727 1 0.219346 0.319415 0.358011
542 1 0.277467 0.304683 0.331454
1012 1 0.25694 0.332827 0.375174
4051 1 0.332177 0.306678 0.329681
2427 1 0.342256 0.287681 0.357413
4792 1 0.348933 0.337288 0.321688
4383 1 0.307061 0.306646 0.353197
1496 1 0.34475 0.322362 0.361756
85 1 0.36991 0.300007 0.339258
3121 1 0.412837 0.297502 0.347003
4579 1 0.389965 0.332371 0.324295
5192 1 0.389329 0.319784 0.362065
3235 1 0.439818 0.313158 0.360533
2306 1 0.432905 0.317417 0.326228
4920 1 0.473613 0.314 0.360627
3547 1 0.468853 0.325895 0.327985
1768 1 0.523246 0.291441 0.352489
4676 1 0.506011 0.327166 0.345615
1363 1 0.534368 0.32923 0.368788
2072 1 0.535054 0.325114 0.328711
2821 1 0.502192 0.303472 0.321164
5095 1 0.223994 0.352619 0.370444
4690 1 0.233079 0.355565 0.330247
3370 1 0.235032 0.387978 0.354675
2176 1 0.271286 0.362719 0.367816
3870 1 0.287644 0.346436 0.336829
1851 1 0.267548 0.388763 0.336791
5965 1 0.327541 0.352045 0.344095
2621 1 0.303719 0.377965 0.344545
3890 1 0.351017 0.373576 0.330479
4783 1 0.304524 0.355379 0.37288
3857 1 0.329223 0.381661 0.374095
1833 1 0.367274 0.35118 0.349032
623 1 0.417917 0.347813 0.332721
1400 1 0.396169 0.376343 0.343559
4689 1 0.370125 0.390495 0.372797
2911 1 0.446737 0.346519 0.349641
3539 1 0.436978 0.373017 0.371277
2918 1 0.437746 0.387871 0.33546
1454 1 0.470802 0.390881 0.355629
194 1 0.474204 0.365891 0.328914
4069 1 0.483221 0.354411 0.365375
294 1 0.52394 0.358879 0.350442
2679 1 0.536935 0.389843 0.340528
421 1 0.506865 0.390432 0.35651
4508 1 0.509356 0.375336 0.315804
1540 1 0.0282162 0.140942 0.41588
515 1 0.462133 0.146226 0.394631
2684 1 0.474799 0.170653 0.419539
781 1 0.503349 0.14748 0.432034
397 1 0.343607 0.18679 0.392162
3488 1 0.338944 0.223858 0.426406
5263 1 0.371647 0.216204 0.379172
4656 1 0.36998 0.192499 0.417824
5756 1 0.402996 0.1962 0.408126
2086 1 0.386397 0.225481 0.424186
5077 1 0.469789 0.176704 0.381901
5772 1 0.470812 0.219291 0.428994
1706 1 0.436314 0.188576 0.418517
5121 1 0.50709 0.212852 0.427438
5542 1 0.488975 0.213308 0.395237
1530 1 0.528864 0.20648 0.393951
3929 1 0.506261 0.17412 0.395918
5880 1 0.294226 0.26502 0.430025
5766 1 0.30368 0.279529 0.39567
3819 1 0.35543 0.248027 0.397277
569 1 0.327029 0.258413 0.421211
3477 1 0.407021 0.228871 0.392323
3421 1 0.38394 0.271992 0.410491
5341 1 0.402884 0.25686 0.434332
1876 1 0.45485 0.251087 0.385004
232 1 0.429855 0.235372 0.415161
1257 1 0.425563 0.268083 0.399355
2452 1 0.484165 0.282577 0.409966
3313 1 0.459372 0.2595 0.422023
1249 1 0.487264 0.252305 0.393766
3963 1 0.519336 0.238951 0.392024
3201 1 0.515585 0.274487 0.399613
2252 1 0.52836 0.249912 0.429497
4549 1 0.245488 0.306512 0.421479
2818 1 0.286282 0.329055 0.403563
3491 1 0.274437 0.292412 0.431434
4524 1 0.336455 0.287576 0.389623
5238 1 0.318844 0.326618 0.390998
5751 1 0.325738 0.303168 0.425057
2996 1 0.360279 0.311868 0.405775
3878 1 0.340468 0.336707 0.421925
5289 1 0.353458 0.286875 0.43591
3233 1 0.370064 0.286164 0.380499
702 1 0.409063 0.302337 0.385318
5485 1 0.418883 0.337915 0.38206
445 1 0.392399 0.336373 0.406948
3090 1 0.387561 0.303506 0.425264
742 1 0.454981 0.339524 0.384275
5754 1 0.476261 0.318217 0.404571
4790 1 0.458167 0.301025 0.426352
3833 1 0.431931 0.318569 0.409121
2369 1 0.455375 0.291553 0.388829
2364 1 0.540643 0.327942 0.410092
678 1 0.507303 0.337194 0.398352
2468 1 0.505994 0.307749 0.37825
432 1 0.542624 0.290404 0.42198
2937 1 0.541541 0.296766 0.387117
3557 1 0.509799 0.30643 0.415995
4829 1 0.519789 0.336598 0.434593
2487 1 0.231608 0.344898 0.405079
2989 1 0.20455 0.396104 0.416144
3164 1 0.193339 0.391231 0.378599
25 1 0.202103 0.361381 0.428272
5327 1 0.291868 0.383229 0.394888
4628 1 0.262555 0.368615 0.401495
2049 1 0.28892 0.367298 0.428977
1724 1 0.249288 0.387775 0.430701
2019 1 0.3529 0.371292 0.411003
807 1 0.316723 0.360303 0.405922
1655 1 0.318761 0.397095 0.41755
987 1 0.356149 0.347127 0.386396
4142 1 0.395404 0.367305 0.385832
5086 1 0.387076 0.371219 0.419602
2999 1 0.398078 0.397795 0.399455
5304 1 0.464844 0.386244 0.390454
5867 1 0.428307 0.370085 0.409332
4062 1 0.473785 0.357662 0.416938
697 1 0.45394 0.389528 0.422481
263 1 0.493116 0.385009 0.411441
979 1 0.542713 0.358528 0.387571
5660 1 0.525253 0.374709 0.419627
3228 1 0.509145 0.370399 0.386032
5841 1 0.147489 0.09803 0.441209
69 1 0.359677 0.124756 0.512725
3057 1 0.379995 0.15143 0.535085
1498 1 0.47954 0.16642 0.520627
4740 1 0.52982 0.159468 0.467478
2983 1 0.514501 0.16308 0.503785
1260 1 0.489479 0.129772 0.502321
3508 1 0.271519 0.224573 0.466624
2773 1 0.335029 0.201336 0.493787
3398 1 0.331153 0.190813 0.448112
5812 1 0.370972 0.214887 0.45649
1259 1 0.411063 0.189419 0.496792
5937 1 0.419951 0.209839 0.438893
5836 1 0.401508 0.180573 0.457942
1841 1 0.41947 0.213397 0.5259
940 1 0.368955 0.222668 0.496155
2483 1 0.384121 0.208906 0.524569
4426 1 0.408559 0.221017 0.46852
172 1 0.471784 0.185321 0.465784
5413 1 0.450641 0.215069 0.457501
2701 1 0.436833 0.182199 0.46668
4964 1 0.449845 0.189214 0.498323
4028 1 0.455927 0.195008 0.533261
1127 1 0.471092 0.215405 0.492139
3556 1 0.490138 0.218807 0.463505
1139 1 0.521719 0.191278 0.47703
3956 1 0.498697 0.194783 0.505601
4442 1 0.526378 0.22408 0.489867
5040 1 0.521101 0.215637 0.532972
2668 1 0.526585 0.222609 0.454213
2016 1 0.49796 0.183 0.444461
289 1 0.542777 0.200417 0.513006
823 1 0.534999 0.191454 0.441463
774 1 0.527033 0.177957 0.535228
2556 1 0.242952 0.241035 0.532073
2711 1 0.301667 0.23642 0.451643
1792 1 0.288119 0.266865 0.470222
699 1 0.351231 0.252924 0.491463
3072 1 0.337749 0.246903 0.527745
5069 1 0.339196 0.233568 0.465241
2754 1 0.312977 0.252075 0.496774
5544 1 0.327049 0.269477 0.461215
3128 1 0.340002 0.280206 0.523539
1293 1 0.362273 0.251604 0.438488
1153 1 0.410411 0.252274 0.479635
4445 1 0.380557 0.268343 0.50561
4293 1 0.4038 0.239907 0.512493
3849 1 0.377312 0.250191 0.538197
3309 1 0.37819 0.246381 0.46928
5231 1 0.408972 0.276775 0.524956
5642 1 0.433573 0.228664 0.491751
4670 1 0.462554 0.244354 0.473295
4386 1 0.440351 0.273725 0.468306
2901 1 0.470347 0.283772 0.487737
770 1 0.475743 0.271935 0.453946
298 1 0.434228 0.260834 0.508475
288 1 0.456183 0.232474 0.532455
5969 1 0.469106 0.25491 0.50603
2756 1 0.432696 0.245874 0.448864
5540 1 0.457588 0.274207 0.536647
65 1 0.495447 0.250227 0.476502
5212 1 0.506043 0.282184 0.540798
2387 1 0.51474 0.274892 0.452616
5932 1 0.543089 0.281864 0.530427
2890 1 0.495221 0.229365 0.512666
4574 1 0.523587 0.245596 0.519776
2501 1 0.531332 0.278079 0.487845
2642 1 0.496689 0.246481 0.437919
628 1 0.502554 0.27349 0.510498
2805 1 0.266596 0.307267 0.46517
4559 1 0.27471 0.33245 0.44035
5149 1 0.279666 0.340448 0.473157
2729 1 0.262991 0.336671 0.514061
2197 1 0.296649 0.326982 0.512791
5785 1 0.297999 0.292279 0.533412
1819 1 0.307206 0.301403 0.453401
355 1 0.341682 0.315788 0.459635
5138 1 0.312227 0.334966 0.445483
5405 1 0.317282 0.327682 0.481527
3980 1 0.313595 0.291387 0.492638
726 1 0.363054 0.326215 0.523357
5324 1 0.360975 0.300578 0.49588
2523 1 0.330593 0.312751 0.513161
906 1 0.377516 0.288508 0.464575
1762 1 0.392382 0.319409 0.463907
3178 1 0.422382 0.327862 0.506299
2305 1 0.396038 0.321018 0.534862
3861 1 0.41515 0.291995 0.445316
1168 1 0.370771 0.332114 0.441655
247 1 0.373335 0.293776 0.531609
2514 1 0.398954 0.305667 0.50409
5705 1 0.376559 0.342722 0.481467
5452 1 0.428278 0.304839 0.479873
2688 1 0.438034 0.321889 0.446028
3380 1 0.464446 0.30403 0.461558
3763 1 0.476908 0.329031 0.438798
2494 1 0.459356 0.330781 0.478785
937 1 0.445886 0.300828 0.513041
5757 1 0.455313 0.341664 0.510165
4189 1 0.478321 0.304368 0.522726
1319 1 0.477904 0.342694 0.540774
5223 1 0.545063 0.309256 0.48534
2951 1 0.52544 0.308055 0.45507
312 1 0.529532 0.337048 0.479326
5004 1 0.494304 0.311292 0.48072
1476 1 0.517266 0.309017 0.512176
4594 1 0.489897 0.333988 0.507289
2183 1 0.17589 0.376531 0.471689
1553 1 0.216767 0.392727 0.529579
945 1 0.222056 0.354886 0.520642
1215 1 0.196689 0.346497 0.472478
5528 1 0.20467 0.38185 0.489856
3811 1 0.21763 0.387018 0.456587
108 1 0.245338 0.363905 0.475171
2736 1 0.277227 0.373834 0.465329
3236 1 0.252118 0.37502 0.531138
268 1 0.294825 0.361651 0.508009
1581 1 0.274983 0.390391 0.506527
2172 1 0.250421 0.356752 0.43983
2525 1 0.303666 0.392454 0.448906
4701 1 0.311624 0.391436 0.517919
2595 1 0.354104 0.365651 0.524273
4908 1 0.330168 0.390432 0.489461
2743 1 0.328849 0.362896 0.44006
4236 1 0.34265 0.353026 0.472648
582 1 0.327062 0.350172 0.507166
1537 1 0.307905 0.362996 0.471246
1344 1 0.363581 0.372369 0.490701
3045 1 0.365183 0.368055 0.451675
3248 1 0.422953 0.375705 0.445367
2345 1 0.375255 0.386539 0.542126
3030 1 0.420335 0.366125 0.509764
5344 1 0.405493 0.346679 0.444337
96 1 0.398187 0.37327 0.472965
3305 1 0.385709 0.351122 0.512871
5318 1 0.394296 0.398762 0.509375
2781 1 0.431113 0.382747 0.482999
3474 1 0.429694 0.347136 0.472756
4646 1 0.480232 0.373647 0.519866
2310 1 0.45336 0.357274 0.443988
2545 1 0.454799 0.395759 0.457377
5148 1 0.463131 0.366302 0.482233
4913 1 0.447902 0.373884 0.538954
1999 1 0.46006 0.399866 0.497119
1593 1 0.54412 0.374317 0.529843
3034 1 0.511273 0.387432 0.526297
3416 1 0.522658 0.368495 0.4566
2281 1 0.501255 0.377282 0.486633
4703 1 0.493409 0.346877 0.469182
137 1 0.540285 0.378688 0.491812
1518 1 0.52287 0.351022 0.514483
4373 1 0.492211 0.376761 0.444685
5551 1 0.517861 0.399736 0.447199
4053 1 0.153136 0.10288 0.566088
3369 1 0.389598 0.189951 0.55843
2402 1 0.425309 0.1836 0.543606
3186 1 0.452921 0.185866 0.57044
1846 1 0.434185 0.214171 0.567698
4864 1 0.485198 0.213577 0.545869
5538 1 0.533889 0.224026 0.598404
1467 1 0.523723 0.20301 0.566415
1788 1 0.493242 0.219617 0.593803
2326 1 0.49487 0.18862 0.566602
1291 1 0.353709 0.277495 0.557384
5285 1 0.343702 0.267358 0.599814
2732 1 0.35362 0.230811 0.563647
2779 1 0.322928 0.241584 0.581687
2992 1 0.424753 0.233455 0.599164
3604 1 0.371279 0.249365 0.586337
3574 1 0.400226 0.238083 0.568014
5027 1 0.393507 0.28038 0.560638
3958 1 0.427353 0.263316 0.578469
3213 1 0.459154 0.243728 0.574928
389 1 0.428887 0.248436 0.545031
1602 1 0.478297 0.279576 0.600096
4538 1 0.452656 0.284594 0.573248
1578 1 0.485791 0.253114 0.543838
1923 1 0.510427 0.234286 0.560991
531 1 0.528768 0.258506 0.580986
4623 1 0.30196 0.325449 0.545425
850 1 0.285241 0.301305 0.569283
1640 1 0.362761 0.311858 0.567277
2128 1 0.322448 0.316266 0.586573
3075 1 0.349244 0.340815 0.553806
720 1 0.330714 0.309092 0.552654
3351 1 0.420943 0.300781 0.54991
4489 1 0.379867 0.329375 0.59859
5360 1 0.398713 0.318243 0.571458
3954 1 0.373727 0.286835 0.587706
1267 1 0.413149 0.289991 0.592776
804 1 0.436009 0.313812 0.578656
1294 1 0.47087 0.31781 0.589784
2015 1 0.477794 0.301999 0.55959
5164 1 0.452758 0.318127 0.544614
1411 1 0.540582 0.341491 0.547035
2587 1 0.50843 0.287755 0.573918
2188 1 0.533787 0.294774 0.590726
1563 1 0.519935 0.333681 0.578079
1700 1 0.53649 0.307259 0.554093
321 1 0.505604 0.31759 0.546612
5366 1 0.277216 0.393699 0.546119
4798 1 0.24606 0.34541 0.586556
1628 1 0.278819 0.389775 0.582503
2400 1 0.293572 0.350118 0.573562
2585 1 0.267031 0.34971 0.550108
4974 1 0.312526 0.386488 0.575304
560 1 0.353936 0.377126 0.583993
2115 1 0.327535 0.350003 0.580491
3902 1 0.338569 0.389366 0.547361
2927 1 0.315054 0.3624 0.547899
3109 1 0.387607 0.392353 0.573494
5743 1 0.386772 0.349805 0.55594
3251 1 0.413892 0.347862 0.588237
2256 1 0.384906 0.362266 0.592191
297 1 0.416078 0.37957 0.554302
4665 1 0.420592 0.343765 0.552488
5259 1 0.45198 0.346116 0.566895
4117 1 0.438279 0.382098 0.581918
11 1 0.482145 0.378448 0.555698
307 1 0.453066 0.354965 0.599765
1732 1 0.466525 0.387899 0.601358
1784 1 0.490654 0.348058 0.577907
2864 1 0.510335 0.357496 0.549584
2926 1 0.539232 0.361494 0.5744
2180 1 0.509119 0.37817 0.581423
1884 1 0.360797 0.164711 0.626921
5420 1 0.348462 0.220116 0.606227
1552 1 0.385279 0.220387 0.602217
2372 1 0.451006 0.202628 0.605878
3365 1 0.426247 0.214429 0.638127
4605 1 0.47714 0.211624 0.640597
145 1 0.525806 0.215472 0.637186
2437 1 0.524744 0.191872 0.604952
1287 1 0.337311 0.269334 0.638444
4422 1 0.400032 0.257032 0.60537
3302 1 0.390183 0.247807 0.643831
3892 1 0.374651 0.284295 0.630648
2656 1 0.454337 0.230279 0.622801
393 1 0.43867 0.253961 0.647971
1427 1 0.439881 0.27402 0.610275
3308 1 0.472556 0.259333 0.628182
3362 1 0.496511 0.239922 0.643958
3445 1 0.502004 0.251876 0.610308
4961 1 0.534501 0.265349 0.619226
2594 1 0.533931 0.2644 0.657513
3708 1 0.0318664 0.340664 0.623557
3704 1 0.303418 0.289317 0.611421
4473 1 0.247049 0.341967 0.632389
4717 1 0.306219 0.331598 0.615194
5301 1 0.345911 0.305557 0.612073
1863 1 0.317745 0.306358 0.640585
4022 1 0.343758 0.335935 0.640158
1976 1 0.411302 0.326943 0.651238
2088 1 0.40676 0.319846 0.61543
5605 1 0.41099 0.291307 0.633368
1524 1 0.375118 0.323515 0.637537
4147 1 0.455441 0.29215 0.639927
3325 1 0.437797 0.306231 0.613565
2938 1 0.472386 0.321878 0.625819
4904 1 0.450049 0.326635 0.659567
2874 1 0.490917 0.291975 0.635565
1997 1 0.507856 0.317905 0.610758
3468 1 0.506264 0.337494 0.64088
1378 1 0.520714 0.303661 0.645782
2618 1 0.253948 0.378199 0.624036
3459 1 0.289778 0.387663 0.658256
1536 1 0.28499 0.344367 0.640887
5435 1 0.295836 0.388654 0.61666
4453 1 0.277392 0.348116 0.604893
5653 1 0.332808 0.393419 0.604689
4221 1 0.356273 0.350466 0.604598
4080 1 0.348195 0.369307 0.645062
2763 1 0.312961 0.366043 0.633538
1869 1 0.388021 0.390879 0.642628
1342 1 0.419118 0.375606 0.606967
5419 1 0.368083 0.387017 0.611838
4956 1 0.392853 0.360575 0.624152
3240 1 0.416689 0.365549 0.65794
536 1 0.431756 0.34457 0.625087
881 1 0.476103 0.391488 0.645314
1277 1 0.442812 0.377617 0.640422
2467 1 0.474493 0.356409 0.640113
719 1 0.544477 0.35147 0.64084
4536 1 0.540857 0.395489 0.636087
1645 1 0.527851 0.353597 0.611712
5592 1 0.515492 0.392393 0.611345
511 1 0.509261 0.375094 0.641952
5083 1 0.494155 0.359323 0.611617
4382 1 0.442872 0.211876 0.667444
5730 1 0.465545 0.217184 0.713214
3047 1 0.429152 0.220274 0.702658
2816 1 0.0744802 0.267349 0.704995
5913 1 0.359262 0.273759 0.668302
2283 1 0.40819 0.251555 0.708158
932 1 0.416431 0.239078 0.671419
524 1 0.387683 0.259265 0.677068
5939 1 0.420983 0.276049 0.668133
1206 1 0.44182 0.253734 0.692574
342 1 0.474341 0.269164 0.66658
1942 1 0.470743 0.233228 0.679144
2377 1 0.478938 0.257381 0.701866
3287 1 0.541266 0.229398 0.681816
4461 1 0.503257 0.256759 0.678513
5356 1 0.539927 0.258906 0.699437
1281 1 0.359689 0.311388 0.666455
5827 1 0.327165 0.314253 0.670032
976 1 0.34664 0.316886 0.710272
4643 1 0.40625 0.327543 0.708686
252 1 0.380113 0.288386 0.697878
4494 1 0.420844 0.287708 0.707376
796 1 0.390334 0.331352 0.678546
1425 1 0.419258 0.311858 0.6794
2548 1 0.391234 0.296031 0.664035
537 1 0.451407 0.296253 0.674972
1565 1 0.478795 0.297185 0.696817
4439 1 0.450891 0.318836 0.705671
1422 1 0.484386 0.316712 0.663306
4973 1 0.518604 0.306232 0.683134
179 1 0.49112 0.3344 0.69925
1691 1 0.224065 0.383808 0.661028
4044 1 0.259801 0.383283 0.674008
1859 1 0.288847 0.380211 0.693014
229 1 0.329359 0.379537 0.681712
2107 1 0.328923 0.347126 0.710028
1475 1 0.343998 0.347035 0.67386
6001 1 0.30678 0.353498 0.671781
1004 1 0.361786 0.393868 0.668297
3525 1 0.367141 0.362431 0.691025
1520 1 0.400576 0.362374 0.69299
2323 1 0.392388 0.386345 0.714479
5507 1 0.398351 0.393827 0.678363
4492 1 0.383265 0.358965 0.660942
5233 1 0.431814 0.349306 0.684054
1734 1 0.429508 0.383641 0.695977
1066 1 0.45633 0.355778 0.708334
6004 1 0.460848 0.373833 0.675399
4884 1 0.515147 0.395136 0.709712
4742 1 0.499432 0.353526 0.67218
5656 1 0.499159 0.38915 0.673286
2961 1 0.530735 0.377387 0.668753
3374 1 0.486366 0.374205 0.702439
3298 1 0.521055 0.360049 0.705658
5474 1 0.534952 0.343837 0.675151
5512 1 0.470973 0.218999 0.763721
819 1 0.413375 0.241484 0.744339
5227 1 0.389285 0.269727 0.748347
4343 1 0.428363 0.273386 0.749398
3925 1 0.44909 0.24919 0.725545
1149 1 0.457617 0.28455 0.724972
3288 1 0.455683 0.259513 0.764147
3366 1 0.479494 0.243471 0.73602
4677 1 0.503744 0.276457 0.719796
1915 1 0.487585 0.277327 0.7498
1506 1 0.513455 0.250676 0.746891
5797 1 0.391355 0.301315 0.728229
3219 1 0.408423 0.303625 0.760961
1331 1 0.394738 0.337195 0.755979
324 1 0.368898 0.308446 0.754869
4156 1 0.425667 0.326447 0.737817
2190 1 0.473773 0.311184 0.738061
4118 1 0.485602 0.342602 0.745452
2561 1 0.529459 0.289509 0.743416
468 1 0.524715 0.341142 0.742763
5270 1 0.50924 0.311642 0.721109
6 1 0.514479 0.315662 0.768594
748 1 0.357696 0.38534 0.720899
5031 1 0.340017 0.34668 0.74404
3756 1 0.318116 0.381993 0.721273
3824 1 0.340609 0.379673 0.752176
3263 1 0.378014 0.389652 0.749485
5677 1 0.380925 0.349511 0.721209
1827 1 0.417425 0.368854 0.752914
5295 1 0.420169 0.361279 0.718918
3465 1 0.371291 0.360463 0.770447
1256 1 0.425607 0.397193 0.726683
2944 1 0.446737 0.355097 0.743289
2504 1 0.462185 0.343151 0.772747
4622 1 0.458797 0.388921 0.733216
3065 1 0.479505 0.375423 0.765671
2866 1 0.500089 0.369482 0.733263
3265 1 0.537099 0.379532 0.737011
3816 1 0.509571 0.354521 0.769678
5060 1 0.230353 0.15427 0.781448
646 1 0.442782 0.283208 0.807031
3050 1 0.497899 0.278138 0.787782
4146 1 0.407229 0.286915 0.79332
3883 1 0.385352 0.325762 0.786019
310 1 0.428241 0.338165 0.775129
433 1 0.443155 0.31837 0.79461
5106 1 0.480301 0.32252 0.80973
4692 1 0.463132 0.289962 0.776004
2622 1 0.53171 0.285866 0.788083
1003 1 0.543314 0.329357 0.806636
5260 1 0.402407 0.368325 0.786595
3306 1 0.419193 0.34674 0.809429
5567 1 0.374539 0.347407 0.81607
1163 1 0.371557 0.393978 0.815015
5566 1 0.405842 0.38129 0.819278
1228 1 0.461557 0.393162 0.800094
544 1 0.440574 0.376009 0.77822
3583 1 0.49655 0.395696 0.789699
1221 1 0.524639 0.387676 0.774261
5357 1 0.523372 0.366704 0.803358
3917 1 0.495978 0.349941 0.817236
3243 1 0.460879 0.0167082 0.859279
827 1 0.483449 0.387045 0.831645
4186 1 0.520673 0.385035 0.835702
4101 1 0.525658 0.397245 0.870463
4390 1 0.308998 0.29958 0.898531
191 1 0.507523 0.377623 0.907789
5048 1 0.243685 0.434283 0.0364258
4882 1 0.412092 0.514378 0.0446534
685 1 0.54353 0.448997 0.0927303
3546 1 0.538566 0.414009 0.0959051
5621 1 0.0623755 0.507147 0.125323
5144 1 0.0896421 0.477001 0.121119
1189 1 0.364239 0.472564 0.110927
3774 1 0.40929 0.535215 0.095428
1622 1 0.408972 0.494309 0.109719
2650 1 0.380764 0.514093 0.11608
1594 1 0.459779 0.537068 0.0640892
3436 1 0.4566 0.481365 0.101127
5966 1 0.46672 0.519921 0.101061
1116 1 0.438502 0.537232 0.113484
2074 1 0.527308 0.511963 0.0855882
1099 1 0.490184 0.493877 0.0792672
528 1 0.523602 0.475605 0.102695
4539 1 0.496204 0.532845 0.0746594
1647 1 0.486959 0.487388 0.1237
2217 1 0.530764 0.503853 0.125874
5760 1 0.503099 0.529241 0.10799
1497 1 0.517605 0.477755 0.0645479
5390 1 0.308857 0.411261 0.165199
156 1 0.377916 0.426351 0.149207
1983 1 0.420192 0.402159 0.164119
3780 1 0.37457 0.469449 0.149696
2770 1 0.395965 0.436184 0.188437
6011 1 0.482016 0.424287 0.140075
3654 1 0.474653 0.400504 0.178118
209 1 0.462973 0.434693 0.168126
2787 1 0.476432 0.46454 0.150867
644 1 0.460629 0.464055 0.183567
5927 1 0.519436 0.41151 0.130692
4393 1 0.524979 0.447742 0.126236
2162 1 0.505612 0.409686 0.159882
257 1 0.504944 0.447927 0.173157
5482 1 0.534267 0.436134 0.158121
14 1 0.26723 0.540381 0.183127
3538 1 0.317599 0.516592 0.183467
95 1 0.358191 0.50882 0.159423
1939 1 0.311784 0.47602 0.182096
855 1 0.314967 0.540068 0.149792
3950 1 0.392949 0.494784 0.144339
3673 1 0.383349 0.527847 0.183398
3154 1 0.421855 0.520487 0.13946
849 1 0.412485 0.509858 0.172046
871 1 0.374645 0.488081 0.184751
4589 1 0.381606 0.532274 0.147968
567 1 0.42905 0.472224 0.15916
2802 1 0.446358 0.499103 0.130656
2101 1 0.465661 0.493566 0.16368
2490 1 0.4653 0.529781 0.136716
3939 1 0.44514 0.521542 0.16544
5565 1 0.511636 0.474547 0.149984
2466 1 0.492716 0.51119 0.149829
3292 1 0.531292 0.496851 0.174111
5710 1 0.494124 0.483389 0.183658
3522 1 0.49209 0.52033 0.181221
2009 1 0.535975 0.539801 0.187794
1188 1 0.288983 0.417018 0.237456
2157 1 0.363474 0.401093 0.216198
2969 1 0.313865 0.401145 0.207973
3626 1 0.340438 0.427179 0.230882
1457 1 0.313346 0.457954 0.22189
106 1 0.352029 0.456455 0.203789
4919 1 0.32362 0.434507 0.196498
2028 1 0.347278 0.463859 0.243637
4031 1 0.377169 0.43501 0.217062
3296 1 0.398707 0.412578 0.244955
5916 1 0.412736 0.444403 0.239787
4544 1 0.405143 0.401685 0.208355
5392 1 0.405887 0.468893 0.19522
1765 1 0.468783 0.400195 0.224988
754 1 0.484564 0.422903 0.240181
2082 1 0.429626 0.432222 0.207704
5815 1 0.465488 0.433334 0.203784
1910 1 0.474661 0.457562 0.248972
2000 1 0.447049 0.463254 0.217832
4707 1 0.436511 0.405447 0.243326
493 1 0.449654 0.435452 0.237681
2010 1 0.441447 0.401927 0.19758
5740 1 0.539676 0.440735 0.242788
1867 1 0.530828 0.464258 0.192748
1759 1 0.500081 0.41554 0.206869
4721 1 0.509318 0.449677 0.216388
2071 1 0.531245 0.425596 0.21176
1334 1 0.515765 0.401606 0.239975
5696 1 0.16781 0.520732 0.224744
1600 1 0.216 0.540091 0.240691
3460 1 0.258016 0.484711 0.208567
503 1 0.300389 0.506926 0.210751
3955 1 0.303314 0.494441 0.24814
4432 1 0.268609 0.499285 0.238095
4379 1 0.264416 0.535969 0.220038
3746 1 0.346525 0.540792 0.2414
329 1 0.34332 0.520304 0.212759
2628 1 0.340494 0.49013 0.191941
3440 1 0.330243 0.491094 0.228213
4558 1 0.306767 0.528013 0.235339
38 1 0.375929 0.479121 0.229778
3234 1 0.419139 0.482411 0.234428
4527 1 0.397343 0.502074 0.211608
5242 1 0.378243 0.520545 0.229331
2723 1 0.479025 0.473511 0.212459
5136 1 0.471952 0.512279 0.209153
2130 1 0.430717 0.533285 0.199703
1002 1 0.461541 0.488243 0.23995
5386 1 0.436772 0.493359 0.194639
2776 1 0.441615 0.522763 0.23224
248 1 0.496074 0.532823 0.221238
4971 1 0.501212 0.488994 0.234233
1307 1 0.5135 0.50443 0.205907
4614 1 0.531476 0.514042 0.23889
5483 1 0.536718 0.480999 0.220906
5359 1 0.219665 0.460038 0.302065
5728 1 0.261512 0.427697 0.295247
5143 1 0.288981 0.419635 0.274291
5154 1 0.287065 0.465092 0.27698
4116 1 0.251102 0.467337 0.288743
3342 1 0.288794 0.440425 0.315192
4765 1 0.356904 0.469583 0.312099
105 1 0.351818 0.424375 0.306352
5829 1 0.319781 0.452078 0.300506
4512 1 0.321898 0.418561 0.292458
2495 1 0.319832 0.435261 0.261739
1125 1 0.3521 0.415715 0.259429
4120 1 0.356392 0.449346 0.279504
1093 1 0.324003 0.471397 0.272583
3021 1 0.37917 0.417546 0.284553
1586 1 0.378231 0.442314 0.253108
2250 1 0.4182 0.411065 0.274364
2861 1 0.411144 0.450031 0.273311
3848 1 0.386008 0.463461 0.294919
3873 1 0.395771 0.432512 0.312682
1838 1 0.430122 0.449199 0.312363
394 1 0.427624 0.413475 0.309404
1434 1 0.462429 0.435129 0.30562
5613 1 0.481675 0.435943 0.278309
5058 1 0.44221 0.433796 0.275862
5219 1 0.442156 0.467178 0.264076
1687 1 0.47091 0.466962 0.301702
3333 1 0.466513 0.408043 0.268613
3135 1 0.537384 0.450118 0.282868
2126 1 0.544268 0.407584 0.252916
2465 1 0.509169 0.462382 0.255984
2471 1 0.509557 0.465211 0.300992
2515 1 0.517553 0.424771 0.271502
2742 1 0.518891 0.411822 0.310193
5579 1 0.494613 0.400766 0.287431
1455 1 0.216381 0.504811 0.261253
2580 1 0.231423 0.496071 0.30728
1273 1 0.242775 0.481909 0.255608
233 1 0.210814 0.533611 0.311991
5796 1 0.279535 0.512176 0.300737
1314 1 0.297343 0.5292 0.271882
3422 1 0.263196 0.502163 0.273467
208 1 0.263531 0.537417 0.285199
2571 1 0.243503 0.525159 0.253038
212 1 0.329017 0.513098 0.265505
1880 1 0.351873 0.491926 0.285556
16 1 0.360555 0.527999 0.275633
4876 1 0.335721 0.520981 0.300992
4119 1 0.309815 0.497124 0.293204
2022 1 0.365196 0.497045 0.254405
61 1 0.420855 0.539674 0.265733
5071 1 0.391634 0.476863 0.263562
5152 1 0.370608 0.512846 0.304942
722 1 0.398375 0.511819 0.275311
1698 1 0.401266 0.498038 0.305652